LAMMPS (6 Aug 2014)
variable	nome string propane
variable	rc equal 14.0
variable	t_step equal 10
variable	skin equal 2.0
variable	temp equal 200
variable	seed equal 2387
variable	nequil equal 2000
variable	nprod equal 200000

units		real
atom_style	full
bond_style	harmonic
angle_style	harmonic
dihedral_style	opls
pair_style	lj/cut ${rc}
pair_style	lj/cut 14
pair_modify	mix arithmetic tail yes

read_data	${nome}.lammps_data
read_data	propane.lammps_data
  orthogonal box = (0 0 0) to (32 32 32)
  1 by 2 by 2 MPI processor grid
  reading atoms ...
  828 atoms
  scanning bonds ...
  1 = max bonds/atom
  scanning angles ...
  1 = max angles/atom
  reading bonds ...
  552 bonds
  reading angles ...
  276 angles
  2 = max # of 1-2 neighbors
  1 = max # of 1-3 neighbors
  1 = max # of 1-4 neighbors
  2 = max # of special neighbors

velocity	all create ${temp} ${seed}
velocity	all create 200 ${seed}
velocity	all create 200 2387
timestep 	${t_step}
timestep 	10

neighbor	${skin} bin
neighbor	2 bin
neigh_modify	delay 0 every 1

thermo		20
thermo_style	custom step temp pe ke press

variable	tdamp equal 100*${t_step}
variable	tdamp equal 100*10
fix		1 all rigid/nvt/small molecule temp ${temp} ${temp} ${tdamp}
fix		1 all rigid/nvt/small molecule temp 200 ${temp} ${tdamp}
fix		1 all rigid/nvt/small molecule temp 200 200 ${tdamp}
fix		1 all rigid/nvt/small molecule temp 200 200 1000
276 rigid bodies with 828 atoms
  1.54029 = max distance from body owner to body atom
dump 		1 all custom 20 ${nome}.lammpstrj id mol type x y z ix iy iz
dump 		1 all custom 20 propane.lammpstrj id mol type x y z ix iy iz
run		${nequil}
run		2000
Memory usage per processor = 11.4673 Mbytes
Step Temp PotEng KinEng Press 
       0    204.63423    -928.1974    336.09665   -1149.3298 
      20    166.79995   -862.72067    273.95663    879.90253 
      40    178.57691   -872.87458    293.29942    611.00421 
      60    180.93312   -868.89447    297.16933    647.98679 
      80    183.96629   -867.28714    302.15108    711.79844 
     100    186.35144   -865.18582    306.06851     693.5514 
     120    185.28588   -858.01447     304.3184    793.43075 
     140    197.43028    -871.7687    324.26469    576.94915 
     160    196.53663   -864.90568    322.79693    665.41458 
     180    197.80141   -862.57281    324.87425    726.71569 
     200    197.87156   -858.93585    324.98946    783.09237 
     220    204.31675   -865.72929    335.57522    661.93959 
     240    199.35716   -855.15345    327.42946    761.57864 
     260    205.05553   -862.85686     336.7886    692.60001 
     280    206.13873    -864.7607    338.56767    665.88818 
     300    197.68825     -853.653    324.68839    872.26602 
     320    192.53894   -852.00105    316.23102    889.15669 
     340    197.91164   -865.84478    325.05529    621.24528 
     360     195.4336   -863.82388    320.98529    695.51583 
     380     199.9623   -871.50536    328.42334    553.96896 
     400    189.11168    -852.8327      310.602    865.97789 
     420    194.00441   -857.76311    318.63796    747.20159 
     440    200.87227   -863.85249    329.91791    667.77875 
     460    201.94049   -857.73653    331.67238     797.6428 
     480    203.50037   -850.09459    334.23437    885.07609 
     500    203.51164   -844.23562    334.25288    980.12689 
     520    207.81793   -850.19006    341.32564    908.35903 
     540    201.48633    -840.6002    330.92646    1030.7538 
     560    213.44384   -862.19657    350.56578    728.58054 
     580     204.2678   -849.97077    335.49482    867.87082 
     600    213.16083    -867.6602    350.10095     597.0533 
     620    208.16892   -862.86423    341.90211    716.96205 
     640     201.8864   -856.76025    331.58354    772.25356 
     660    193.49876   -848.84074    317.80747    889.97685 
     680    194.92257   -855.43269    320.14596    803.42643 
     700    195.94636   -857.42686    321.82746    792.76329 
     720    197.95089   -858.75611    325.11976    754.20863 
     740    204.93862   -867.19287    336.59659    662.13118 
     760    200.79067   -858.10368    329.78388    816.22719 
     780     205.1575   -862.31335    336.95608    734.98355 
     800    202.37946   -856.61261    332.39336    803.91751 
     820    205.07863    -861.7751    336.82654    722.73506 
     840    201.77858   -858.60663    331.40645    773.16025 
     860    206.15045   -869.44984    338.58692    651.84004 
     880    200.87518   -863.37718    329.92269    718.87927 
     900    204.54995   -870.31176    335.95822    552.60371 
     920    202.82926   -867.54053    333.13213    659.42738 
     940    199.76582   -862.79092    328.10065    728.19773 
     960    199.05195   -862.10178    326.92817    689.24948 
     980    195.82855   -856.92641    321.63398    802.02668 
    1000    206.06356   -873.44311    338.44422    561.26264 
    1020    194.18988   -854.17157    318.94257    798.56313 
    1040    202.49331   -869.44188    332.58035    590.34806 
    1060     197.2131   -863.21864    323.90799    739.08092 
    1080    193.43588   -857.07643    317.70418    820.62757 
    1100    202.44412   -870.61627    332.49956    675.56001 
    1120    203.75958   -871.05457     334.6601    702.83824 
    1140    207.50509   -875.52507    340.81183    645.10409 
    1160    206.09744   -871.19642    338.49987    642.18267 
    1180    194.92742   -850.73479    320.15392    916.55735 
    1200    199.44608   -858.14972    327.57549    757.16546 
    1220    205.43765   -870.10195     337.4162    582.32459 
    1240    201.70247   -865.60676    331.28145    685.01168 
    1260    195.70283   -856.44053    321.42748    846.24495 
    1280    194.31926   -853.88444    319.15507    846.66319 
    1300    192.81259   -850.22722    316.68047    892.55106 
    1320    196.54919   -854.59096    322.81756    766.36022 
    1340    200.24054    -858.1216    328.88034     772.5539 
    1360    208.19965   -868.17707    341.95258    605.22548 
    1380     205.4693   -861.65181    337.46819    715.88453 
    1400    208.42476    -867.6616    342.32231    635.21625 
    1420    200.81743   -858.71381    329.82783    735.89468 
    1440    197.77701   -855.77045    324.83417    770.58738 
    1460    195.91962   -853.63949    321.78355    812.25979 
    1480     205.0303   -868.36394    336.74716    625.42212 
    1500    192.95698   -848.85316    316.91762    887.80568 
    1520    199.30071   -859.35815    327.33673    708.77273 
    1540    198.50355    -858.3904    326.02745    746.12045 
    1560     198.5644   -858.83416    326.12739    793.46004 
    1580    198.95598   -859.20686    326.77054    783.15512 
    1600    201.26089   -861.61155    330.55618    689.59278 
    1620    199.30923   -857.31917    327.35072    727.75599 
    1640    206.29595   -867.97809    338.82589    621.04881 
    1660    204.16128   -864.50347    335.31986    646.46726 
    1680    193.75641   -848.00327    318.23064    880.45273 
    1700    194.62042   -849.84905     319.6497    847.45022 
    1720    200.13317   -858.90986    328.70399    707.65589 
    1740     202.8428   -862.93811    333.15436    708.97743 
    1760    196.70943   -853.44663    323.08075    879.19783 
    1780    203.48971   -865.25825    334.21685    691.60996 
    1800     203.5475   -867.36979    334.31177    690.21812 
    1820    197.55788   -861.73554    324.47426    688.54828 
    1840    195.55791   -863.09873    321.18946    663.72112 
    1860    197.74646   -868.75747    324.78399    587.47994 
    1880    200.94738    -873.7139    330.04126    521.30516 
    1900     196.4706    -864.4356    322.68848    652.36669 
    1920    195.73137   -860.06013    321.47436    670.80797 
    1940    201.21195   -866.13873     330.4758    663.86608 
    1960    202.98153   -868.34021    333.38221    670.60733 
    1980    198.81632   -862.67982    326.54116    749.87603 
    2000    201.83303   -868.33663    331.49589    695.67965 
Loop time of 7.20545 on 4 procs for 2000 steps with 828 atoms

Pair  time (%) = 2.95286 (40.981)
Bond  time (%) = 0.0446842 (0.620144)
Neigh time (%) = 0.913501 (12.6779)
Comm  time (%) = 0.830586 (11.5272)
Outpt time (%) = 0.10503 (1.45765)
Other time (%) = 2.35879 (32.7361)

Nlocal:    207 ave 212 max 201 min
Histogram: 1 0 0 0 1 0 0 1 0 1
Nghost:    3519 ave 3557 max 3480 min
Histogram: 1 0 0 1 0 0 1 0 0 1
Neighs:    44568.8 ave 46264 max 43565 min
Histogram: 2 0 0 0 1 0 0 0 0 1

Total # of neighbors = 178275
Ave neighs/atom = 215.308
Ave special neighs/atom = 2
Neighbor list builds = 222
Dangerous builds = 0
unfix		1
fix		2 all rigid/nve/small molecule
276 rigid bodies with 828 atoms
  1.54029 = max distance from body owner to body atom
run		${nprod}
run		200000
Memory usage per processor = 11.468 Mbytes
Step Temp PotEng KinEng Press 
    2000    201.83303   -868.33663    331.49589    810.75332 
    2020    199.05604    -863.7789    326.93489    787.17379 
    2040    193.19653   -854.15753    317.31107    877.65969 
    2060    200.09907   -865.52296    328.64798    738.78265 
    2080    195.44131   -857.79057    320.99795    810.84433 
    2100    201.13897   -867.28866    330.35594    663.04731 
    2120    195.41222   -857.79985    320.95017    816.76439 
    2140    194.50178   -856.22196    319.45485    788.58648 
    2160     187.5704   -844.87108    308.07056    969.38782 
    2180    205.91854    -875.0806    338.20603    547.32621 
    2200    199.10418   -863.86505    327.01394    715.09133 
    2220    201.70089   -868.15174    331.27885    603.47193 
    2240    198.71612   -863.27294    326.37659     684.9067 
    2260    196.53646   -859.67135    322.79666    741.14187 
    2280    192.02697   -852.22252    315.39016    861.37617 
    2300    195.94211    -858.6893    321.82048    794.55554 
    2320    192.37611   -852.74264    315.96359    837.85224 
    2340    200.21247    -865.6417    328.83423    675.83993 
    2360    195.28091   -857.47051    320.73451    716.82462 
    2380    195.66446   -858.22843    321.36446    786.10332 
    2400    197.89442   -861.82109      325.027    765.60038 
    2420    190.27409   -849.36562    312.51118     930.0449 
    2440    190.82301   -850.27329    313.41274    958.75358 
    2460    192.68088   -853.28291    316.46416    844.20945 
    2480    197.51656   -861.19786     324.4064    706.19587 
    2500    190.19525   -849.17513    312.38169    922.22764 
    2520    196.98994   -860.33815    323.54146    694.76293 
    2540    194.67115   -856.53912    319.73302     785.1089 
    2560    200.18439   -865.64388    328.78811    713.68523 
    2580    198.02436   -862.04962    325.24042     730.9177 
    2600    198.07354   -862.15557     325.3212    726.79782 
    2620    194.10979    -855.5603    318.81103    818.16306 
    2640    197.91472   -861.91248    325.06035     746.7649 
    2660    196.53684   -859.55915    322.79728    702.00804 
    2680    201.46244   -867.66509    330.88721    638.13469 
    2700    194.16296   -855.79239    318.89835    828.94481 
    2720    197.78395    -861.7132    324.84557    788.16251 
    2740    201.40938   -867.63088    330.80007     671.7769 
    2760    199.07699   -863.78874    326.96929    711.16158 
    2780    204.80561   -873.24008    336.37812    594.75531 
    2800    198.17545   -862.39114    325.48858     729.1353 
    2820    199.09997   -863.87722    327.00704    645.19403 
    2840    198.03443   -862.08696    325.25696    665.14773 
    2860    201.31048   -867.56739    330.63763    670.80203 
    2880    197.72919   -861.54132    324.75563    712.70772 
    2900    190.46112   -849.67951    312.81836    951.54785 
    2920    197.87417   -861.78811    324.99376    756.25665 
    2940    197.24811   -860.80758    323.96549    752.08897 
    2960    202.99486    -870.2675     333.4041    583.93958 
    2980     199.3119   -864.31386    327.35512    697.53568 
    3000    200.99772   -866.90356    330.12394    623.32484 
    3020    194.92097   -856.95712    320.14333    808.99427 
    3040    201.24968    -867.4465    330.53778    639.08428 
    3060    201.26322   -867.37486    330.56001      598.272 
    3080     198.8269   -863.41823    326.55853    696.53603 
    3100    197.16911   -860.67594    323.83574    745.21707 
    3120    199.15743   -863.95297    327.10141    689.23609 
    3140    201.37664   -867.55534     330.7463    645.71038 
    3160    197.19136   -860.78725    323.87228    698.99332 
    3180    196.87342   -860.25928     323.3501    697.30892 
    3200    195.74623   -858.41389    321.49876    771.30096 
    3220    201.85685   -868.41619    331.53501    608.38686 
    3240    195.42241   -857.81979    320.96692    772.83049 
    3260    193.64842   -854.91471    318.05326    787.45987 
    3280    195.11423   -857.32203    320.46076    829.35334 
    3300    192.28566   -852.71519    315.81503     877.5254 
    3320    196.10904   -858.94588    322.09466    788.52717 
    3340    197.25428   -860.76412    323.97563    723.39062 
    3360    201.15182   -867.18132    330.37705    664.59611 
    3380    198.39914   -862.74795    325.85597    704.92595 
    3400    202.41704   -869.32955    332.45507    628.30741 
    3420    191.95541   -852.07796    315.27262    871.31821 
    3440    196.69429   -859.88921    323.05588    797.94701 
    3460    203.84941   -871.82453    334.80764    668.53729 
    3480    199.51101   -864.51549    327.68214    689.11929 
    3500    201.19604   -867.31512    330.44968    662.88689 
    3520    193.70778   -854.95172    318.15076    817.22533 
    3540    200.82809   -866.84293    329.84535    659.27517 
    3560    199.76713   -865.02931     328.1028    722.12161 
    3580    196.18004   -859.16644    322.21126    758.75745 
    3600     200.6591   -866.49513    329.56778    672.70007 
    3620    196.67288    -859.9263    323.02072     759.7942 
    3640    195.52652   -858.01899     321.1379    777.45576 
    3660    198.88073   -863.47916    326.64694    714.02092 
    3680    196.96841    -860.4237     323.5061    721.48497 
    3700    198.50131    -862.8991    326.02378    665.15682 
    3720    198.15493   -862.32885    325.45487    708.97865 
    3740    200.20739   -865.72662    328.82589    716.66467 
    3760    200.16947   -865.63484    328.76361    644.47119 
    3780    194.42378   -856.19361    319.32673    764.23622 
    3800     197.3184   -860.87891    324.08094    683.90823 
    3820    196.60677    -859.8245    322.91214    731.99718 
    3840    197.75633   -861.70451     324.8002    764.30853 
    3860    200.45085   -866.10596    329.22575     689.9627 
    3880    189.08053   -847.34738    310.55084    895.67483 
    3900    202.92863   -870.22768    333.29532    607.18662 
    3920    197.95901   -862.03363    325.13308    755.16651 
    3940    200.23112   -865.75432    328.86486    672.62201 
    3960    191.43999   -851.29915    314.42608    887.55739 
    3980    202.57754   -869.56662    332.71869    627.30013 
    4000    195.59216   -858.04439    321.24572    808.27758 
    4020    200.06736   -865.46129    328.59591    713.94157 
    4040    198.55934   -862.97245     326.1191    697.13872 
    4060    199.55381   -864.65651    327.75244     656.0326 
    4080    197.92261   -861.93602    325.07331    650.97804 
    4100    197.09577    -860.5214    323.71528    711.81248 
    4120    192.71943   -853.26131    316.52747    834.89644 
    4140     191.7666   -851.77785    314.96252      845.094 
    4160     195.8402   -858.45718     321.6531    736.42604 
    4180    200.76592   -866.55561    329.74324    676.90385 
    4200    195.57753   -858.12352    321.22169    766.71036 
    4220    195.12027   -857.31369    320.47067    795.63225 
    4240    196.64227   -859.70681    322.97044    772.29697 
    4260    194.61195   -856.45844    319.63579    825.30147 
    4280    202.45219   -869.40044    332.51281    604.66162 
    4300    198.09752   -862.29268    325.36059    721.16233 
    4320    194.10493   -855.56158    318.80305    815.02014 
    4340    192.40007   -852.85443    316.00294    892.59697 
    4360    198.07187    -862.2109    325.31845    717.96868 
    4380    200.22963   -865.74892    328.86242    667.91845 
    4400    201.65868   -868.05573    331.20952    610.51063 
    4420    189.53703   -848.12496    311.30061     907.4128 
    4440    198.45611   -862.82817    325.94954    728.13121 
    4460    193.03417    -853.8347    317.04441    868.87416 
    4480    200.73593   -866.66571    329.69397    664.38156 
    4500    202.11322   -868.78876    331.95607    695.56581 
    4520    194.60988     -856.421    319.63239    831.65558 
    4540    200.67843   -866.42833    329.59953    622.90598 
    4560    197.24175   -860.79428    323.95504    732.08362 
    4580    194.30515   -855.90551    319.13189    812.28927 
    4600     193.1586   -853.97751    317.24877    793.24476 
    4620    193.87233   -855.21023    318.42102    756.78737 
    4640    195.36726   -857.67279    320.87633    748.30676 
    4660    197.90186   -861.81533    325.03923    695.43691 
    4680    200.49856   -866.16389    329.30412    645.65743 
    4700    200.86621   -866.82536    329.90795    636.65258 
    4720    191.34975   -851.05469    314.27787    837.96101 
    4740    195.20687     -857.427     320.6129    764.45987 
    4760    201.04347   -867.09534    330.19908    631.16022 
    4780    199.95512   -865.26695    328.41155    677.63479 
    4800    198.33196   -862.61145    325.74564    702.28088 
    4820    201.28501   -867.47955    330.59581    628.62222 
    4840    199.75339    -864.9032    328.08022    645.91295 
    4860     197.5569   -861.26828    324.47266    697.09554 
    4880    195.34387   -857.59988    320.83791    727.48925 
    4900    203.25503   -870.71126    333.83141    588.09843 
    4920    200.40882   -866.02084    329.15673    654.91003 
    4940    195.25106   -857.48759    320.68548     812.7697 
    4960     199.1176   -863.91378      327.036    675.22489 
    4980    204.27977   -872.40807    335.51447    591.13628 
    5000    195.93018   -858.64548    321.80089    787.71843 
    5020    204.59911   -872.94385    336.03896    568.42845 
    5040    197.17229   -860.74574    323.84097    700.99844 
    5060    190.83029   -850.24012    313.42469    931.12061 
    5080    201.10801    -867.1738    330.30509    599.30042 
    5100    201.07234   -867.11612    330.24651    638.87951 
    5120    201.27098   -867.44189    330.57276    633.96681 
    5140    197.99096    -862.1156    325.18556    787.81664 
    5160     195.6166   -858.17515    321.28586    853.90653 
    5180    188.87825   -846.98809    310.21862    902.26211 
    5200    201.31645   -867.52318    330.64744    699.74764 
    5220    185.77524   -841.94793    305.12215    998.32523 
    5240    200.94817   -866.90157    330.04256      657.138 
    5260    197.43691    -861.1421    324.27558    717.88422 
    5280    198.26423   -862.52207     325.6344     724.7053 
    5300    199.16379   -863.93633    327.11185    678.27054 
    5320    194.92424   -857.02921    320.14871    833.10612 
    5340    194.53969   -856.42709    319.51711    824.33663 
    5360    195.21903   -857.40204    320.63288    733.03865 
    5380    202.63656   -869.61672    332.81562    626.99945 
    5400    193.76149   -854.93034    318.23898     852.8611 
    5420    190.77907   -850.15242    313.34057    865.72635 
    5440    200.34048   -865.90051    329.04448    660.61356 
    5460    202.25599   -869.09374    332.19057    641.75029 
    5480    195.23159   -857.55851     320.6535     811.5987 
    5500    197.78819   -861.63998    324.85253    748.37537 
    5520    202.31309   -869.10945    332.28435    543.83599 
    5540    198.42326   -862.69999     325.8956    729.08111 
    5560    202.61059   -869.62009    332.77297    658.41001 
    5580     197.3446   -860.95008    324.12397    836.46126 
    5600    194.92647   -856.89571    320.15237    810.53066 
    5620    199.34106   -864.18992      327.403    656.18238 
    5640    198.60695   -863.06195    326.19729    721.56948 
    5660    188.59893   -846.53949    309.75984    972.58981 
    5680    197.09317   -860.61353    323.71101    739.44454 
    5700    196.94338    -860.2886    323.46499    722.13539 
    5720    197.46498   -861.24875    324.32169    726.57774 
    5740    201.97523   -868.65998    331.72944    625.10446 
    5760    204.87923   -873.35785    336.49904    568.28508 
    5780    197.42787   -860.98962    324.26073    741.42897 
    5800    192.86055   -853.60183    316.75925    842.50105 
    5820    192.65796   -853.22306    316.42651    769.30747 
    5840    195.48425   -857.91247    321.06848    735.80077 
    5860    202.22295   -868.98664     332.1363     628.6644 
    5880    198.18638   -862.31362    325.50653    727.26818 
    5900    197.40418   -861.06576    324.22182    717.47392 
    5920    198.08913   -862.14217     325.3468    717.59345 
    5940    191.47917   -851.38877    314.49043    894.24506 
    5960    189.32605   -847.72738    310.95409    938.69479 
    5980    191.75704   -851.76664    314.94681    830.24137 
    6000    203.65353   -871.46246    334.48592    589.86137 
    6020    198.47025   -862.92692    325.97276    778.47504 
    6040    204.17723   -872.19024    335.34606    593.33706 
    6060    202.35525    -869.2692    332.35359    607.54974 
    6080    199.73662   -864.94241    328.05269    680.63785 
    6100    198.05173   -862.22263    325.28537     718.5792 
    6120    194.70678   -856.61032    319.79155    789.21176 
    6140    193.30506   -854.35674    317.48932    831.93918 
    6160    201.13195    -867.2076    330.34441    616.07975 
    6180    200.30453   -865.82751    328.98543    639.14283 
    6200    204.49955   -872.68846    335.87545    570.88437 
    6220    191.05921   -850.61172    313.80068    899.56182 
    6240    203.06954   -870.41515    333.52677    635.72577 
    6260    197.30347   -860.93166    324.05641    754.22588 
    6280    202.05058   -868.72722     331.8532    655.80438 
    6300    194.40644   -856.07543    319.29826    805.46471 
    6320    197.33576    -860.9673    324.10945    751.48478 
    6340    202.28542   -869.01449    332.23891    616.09634 
    6360     193.7042   -854.94283    318.14487    841.08764 
    6380    193.00286   -853.79581    316.99299     805.4466 
    6400    192.41807   -852.91905    316.03251    803.49306 
    6420    202.31831   -869.20728    332.29291    602.40206 
    6440    198.25918   -862.48581     325.6261    710.95044 
    6460    199.37268   -864.32066    327.45495    688.82276 
    6480     201.4115   -867.57566    330.80355     599.3793 
    6500    191.79301   -851.76897    315.00589    838.25579 
    6520     203.1364   -870.39954    333.63658    581.27348 
    6540    195.71494   -858.19278    321.44736    750.97954 
    6560    200.98542   -866.94257    330.10375    660.83191 
    6580    189.95815    -848.7907    311.99226    851.10254 
    6600    194.71337   -856.65473    319.80237    789.62073 
    6620    201.16639   -867.25686    330.40097     673.5438 
    6640     197.3524   -861.04102    324.13677    773.31845 
    6660    201.94111   -868.55944     331.6734     687.3905 
    6680      196.826    -860.1299     323.2722     789.1584 
    6700    198.64214   -863.13173    326.25508    713.44476 
    6720    200.62465   -866.39733    329.51121    652.33978 
    6740    193.48699   -854.57319    317.78812    800.07267 
    6760    194.28419   -855.83889    319.09747     817.9528 
    6780    200.50135   -866.16235    329.30869    694.06961 
    6800     196.7676   -860.01462    323.17629    727.30443 
    6820    198.29141    -862.5012    325.67904    658.94846 
    6840    196.65224   -859.92594    322.98682    776.48248 
    6860    195.87157    -858.4568    321.70463    765.74367 
    6880    193.44687   -854.51296    317.72224    785.94359 
    6900    193.08373   -853.91302    317.12581     801.2768 
    6920    195.36522   -857.63786    320.87298     780.7597 
    6940    194.01058   -855.33899    318.64808    804.66798 
    6960    198.25998   -862.44249    325.62741    719.64912 
    6980    195.81795   -858.41511    321.61656    717.57644 
    7000    198.39226   -862.70307    325.84467    685.37539 
    7020    201.91937   -868.47399    331.63769    603.54081 
    7040     195.2597   -857.61657    320.69967     817.9244 
    7060    195.83473   -858.50888    321.64412    750.94409 
    7080    197.09403   -860.56621    323.71243     698.8648 
    7100    199.95862   -865.19639    328.41731    700.76998 
    7120    203.20762   -870.62812    333.75355    594.01375 
    7140    197.33425   -860.90538    324.10696    720.44617 
    7160    193.34089   -854.35959    317.54816    865.99579 
    7180    200.22901   -865.75017     328.8614    768.12213 
    7200    197.76154   -861.72545    324.80876    753.80715 
    7220    197.10454   -860.53292    323.72969      741.747 
    7240    196.05458   -858.92081    322.00521    772.88296 
    7260    199.00077   -863.71366    326.84411    692.18392 
    7280    201.82378   -868.39828    331.48069    636.63003 
    7300    192.00083   -852.12212    315.34722     811.0351 
    7320     200.5619   -866.25658    329.40815    662.96625 
    7340    194.25074   -855.82771    319.04254    766.01935 
    7360     198.9536   -863.52742    326.76663    633.77771 
    7380    198.47126   -862.82095    325.97442     711.1858 
    7400    196.07079   -858.82168    322.03183    766.83963 
    7420    199.71399   -864.86239    328.01552    672.91368 
    7440      194.856   -856.81037    320.03663    817.30809 
    7460    196.39357   -859.43547    322.56197    751.38631 
    7480    196.44902   -859.54966    322.65304    769.81512 
    7500    198.56547   -863.00706    326.12916    692.08328 
    7520    196.34223   -859.37305    322.47764    689.66624 
    7540    200.02966   -865.36212    328.53398    634.94709 
    7560    197.60819   -861.33505    324.55689    760.96629 
    7580    198.45681   -862.75708    325.95069    728.25319 
    7600    192.61105   -853.15427    316.34947    844.92938 
    7620    201.96248   -868.59481    331.70849    643.07635 
    7640     197.2915   -860.98151    324.03676     720.3546 
    7660    196.82936   -860.16533    323.27773    776.06045 
    7680    192.84954   -853.57746    316.74117    907.41925 
    7700    202.99251   -870.32499    333.40024    612.94294 
    7720    202.75646   -869.81432    333.01256    649.21045 
    7740    199.73177   -864.82448    328.04473    711.84546 
    7760    195.08359   -857.19626    320.41043    762.63714 
    7780    189.85207   -848.62007    311.81804     964.0686 
    7800    194.91314   -856.97518    320.13047    801.57912 
    7820    203.69429   -871.51805    334.55286    593.50807 
    7840     204.7582   -873.22507    336.30026    565.60096 
    7860    199.49167   -864.53622    327.65038    657.90612 
    7880     197.5118    -861.2634    324.39858    647.06238 
    7900    201.67002   -868.10309    331.22815    605.94526 
    7920    199.77704   -864.96981    328.11907    681.91578 
    7940    197.94848   -861.90905    325.11579    695.56381 
    7960    193.77878   -855.12895    318.26738    775.18846 
    7980    191.52664   -851.36515     314.5684    862.03366 
    8000    193.08446   -853.91585      317.127    767.30538 
    8020    193.42174   -854.48646    317.68096    784.26192 
    8040    198.19515   -862.38189    325.52093    649.28235 
    8060    197.02499   -860.47369    323.59903    791.45624 
    8080    200.99191   -866.93648    330.11441    632.91411 
    8100    195.28831   -857.51599    320.74667    742.25306 
    8120    198.18525   -862.35016    325.50468    701.18981 
    8140    199.49161   -864.52043    327.65028    658.99231 
    8160    196.22897   -859.08879    322.29163    755.36926 
    8180    199.32838   -864.20126    327.38218    752.09965 
    8200     197.5286   -861.19911    324.42618    776.98432 
    8220    198.50832   -862.85863    326.03529    715.88888 
    8240    199.51509   -864.57578    327.68885    744.28526 
    8260    197.23479   -860.76484    323.94362    732.98197 
    8280     197.2635   -860.80463    323.99077    691.91692 
    8300    198.41604   -862.71737    325.88373    650.37869 
    8320    200.65484   -866.40563    329.56079    619.96338 
    8340     193.6736   -854.91839    318.09462    825.21434 
    8360    198.62217   -862.98853    326.22229    768.77127 
    8380    194.19933   -855.74417    318.95809    813.87766 
    8400     197.4168   -861.09879    324.24255    783.11192 
    8420    205.59399   -874.51417    337.67299    538.03787 
    8440    194.85806   -856.81607    320.04001    775.52521 
    8460     201.3162   -867.46189    330.64702    591.29776 
    8480    201.35602   -867.57822    330.71243      646.216 
    8500    195.11357    -857.2427    320.45966    789.58025 
    8520    203.69232   -871.42364    334.54963    594.36056 
    8540    193.00954   -853.82232    317.00396    811.33359 
    8560    200.39251   -865.98571    329.12993    612.82012 
    8580    196.54526   -859.66148    322.81112      732.573 
    8600    194.30401    -855.9299    319.13003    763.37734 
    8620    199.26838   -864.13028    327.28364    651.05696 
    8640    192.85422   -853.52902    316.74885    856.98959 
    8660    201.80949   -868.30538    331.45722    639.24509 
    8680    196.20449   -859.05202    322.25142    751.42241 
    8700    198.48273   -862.81209    325.99326    723.29855 
    8720    203.73927   -871.44166    334.62674    551.40658 
    8740    201.06594   -867.05684      330.236    648.10601 
    8760    197.87557   -861.88581    324.99605    807.08224 
    8780    204.99579   -873.59153    336.69049    632.36582 
    8800    206.35003   -875.78033    338.91473    562.63576 
    8820    201.44952   -867.75954      330.866    659.16015 
    8840    200.55685   -866.27274    329.39985    654.46993 
    8860    198.27481   -862.42938    325.65177    724.12842 
    8880    198.13088   -862.25849    325.41537    744.46697 
    8900     200.6013   -866.30043    329.47285    646.78684 
    8920    200.46348   -866.14233    329.24651    606.47149 
    8940    199.42466   -864.40698    327.54031    662.61285 
    8960    192.15266   -852.39025    315.59659    855.98548 
    8980     194.4951   -856.29591    319.44387    805.25335 
    9000    192.97952   -853.80503    316.95464    777.70959 
    9020    196.85427   -860.17302    323.31864    735.45198 
    9040    195.61545    -858.1094    321.28397    795.44887 
    9060     199.2203   -864.09336    327.20466    747.13227 
    9080    199.64559      -864.77    327.90318    748.02301 
    9100    202.54254   -869.54347     332.6612    643.33422 
    9120    198.02505    -862.0646    325.24156    700.90851 
    9140    196.61642   -859.73577    322.92799    697.90082 
    9160    191.01643   -850.45284    313.73041    870.94104 
    9180     196.4672   -859.53715     322.6829    785.62482 
    9200    200.61398   -866.28707    329.49369    678.96973 
    9220    202.49792   -869.47456    332.58793    655.70874 
    9240    198.79551   -863.36195    326.50698    701.98114 
    9260    194.89262    -856.8425    320.09677    759.38798 
    9280    194.32122   -856.04979    319.15829     740.9713 
    9300    198.64241    -863.0948    326.25553     679.6108 
    9320    202.99582   -870.16914    333.40568    581.78341 
    9340    203.94216   -871.80986    334.95997    517.19774 
    9360    201.46461   -867.64723    330.89079    616.83635 
    9380    195.19594   -857.34966    320.59496    766.52972 
    9400     203.0207   -870.32642    333.44655    584.45178 
    9420    196.18104   -859.07461    322.21291    735.66479 
    9440    201.21873   -867.32939    330.48694      641.566 
    9460    202.78085   -869.96661     333.0526    614.14114 
    9480    196.27581   -859.24004    322.36856    729.26445 
    9500    192.51237     -853.025    316.18739    832.88368 
    9520    195.46504   -857.90753    321.03694    838.92761 
    9540    194.82476      -856.87    319.98531    815.86608 
    9560     201.4234   -867.69972     330.8231    617.76685 
    9580    195.81698   -858.45197    321.61497    767.66095 
    9600    195.28392   -857.57185    320.73945    791.52604 
    9620    199.36772   -864.22576     327.4468    690.61058 
    9640    199.64088   -864.74606    327.89544     631.7171 
    9660    200.81624   -866.65889    329.82589    616.91834 
    9680    197.13699   -860.56374    323.78299    784.47374 
    9700    198.23392    -862.4667    325.58461     747.6901 
    9720    199.60096   -864.62626    327.82987     692.0914 
    9740    194.98825   -857.04964    320.25384    784.36591 
    9760    199.97021   -865.25649    328.43634    590.32799 
    9780    192.40312   -852.88796    316.00795    769.36152 
    9800    194.59736    -856.4329    319.61182    759.59058 
    9820    195.06614   -857.14018    320.38177     760.9124 
    9840    193.37139   -854.46925    317.59827    804.84516 
    9860    196.45407    -859.5224    322.66135    821.23111 
    9880      200.697   -866.51184    329.63004    682.58127 
    9900    191.95118   -852.17491    315.26567    884.10126 
    9920    196.35844    -859.3134    322.50428    798.57222 
    9940    199.33985   -864.26812    327.40101    707.42646 
    9960     198.8604   -863.48394    326.61356    654.48089 
    9980    198.34503   -862.63136     325.7671    706.91719 
   10000    193.77748   -854.97828    318.26523    778.79042 
   10020    196.06471   -858.82517    322.02185     735.5969 
   10040    197.49819   -861.23674    324.37623     737.0951 
   10060    200.27224    -865.8413     328.9324    597.91721 
   10080    196.98253   -860.34336     323.5293    707.21621 
   10100    201.70849   -868.11695    331.29134    626.76055 
   10120    197.92749    -861.9382    325.08132    710.04314 
   10140    200.39429   -866.02207    329.13285    604.12596 
   10160    202.10851   -868.91592    331.94835    679.87321 
   10180     197.0907   -860.47737    323.70696    782.67036 
   10200    193.95794   -855.40735    318.56162    825.95871 
   10220    203.54643   -871.07729    334.31002    616.15373 
   10240    201.36814   -867.60238    330.73233    602.57544 
   10260    201.62705   -867.99762    331.15757    576.26168 
   10280    202.71386   -869.82174    332.94259    641.01485 
   10300    206.11086   -875.32052    338.52191    570.21802 
   10320    199.87869   -865.09471    328.28603     713.1665 
   10340    196.13759   -858.91961    322.14154    743.60161 
   10360    195.02803   -857.12721    320.31918    746.28463 
   10380    199.47441   -864.48306    327.62202    693.36244 
   10400     194.4835   -856.29545    319.42482    810.74434 
   10420    194.08962   -855.64524    318.77791    759.76963 
   10440    197.00581    -860.3535    323.56752    689.57369 
   10460    195.14343    -857.3085    320.50872    771.41933 
   10480    199.00448   -863.72144    326.85021    668.26614 
   10500    188.53585   -846.39069    309.65625    954.74218 
   10520    193.20676    -854.0997    317.32787    804.10468 
   10540    199.14683   -863.93706      327.084    687.75384 
   10560    196.17566   -859.12395    322.20407      788.875 
   10580    201.89924   -868.57827    331.60462    614.70889 
   10600    197.78571   -861.70549    324.84845    749.11186 
   10620    192.27498   -852.65102    315.79749    832.31029 
   10640      198.953    -863.6046    326.76565    648.87489 
   10660    195.16376   -857.32802    320.54209    769.32927 
   10680    193.96999   -855.42474    318.58142    830.88867 
   10700    198.88917   -863.43645    326.66082    737.85157 
   10720    195.46874   -857.81606    321.04301    781.10702 
   10740     190.6904    -849.8978    313.19494     845.9348 
   10760    192.96685   -853.72367    316.93384    803.80352 
   10780      201.781   -868.27378    331.41043    607.41956 
   10800    196.21975   -859.15139    322.27649      746.216 
   10820    199.88532   -865.15525    328.29692    657.84843 
   10840    195.63295   -858.05214    321.31271    740.31614 
   10860    197.66446   -861.48549    324.64931    709.96731 
   10880    204.87328   -873.37356    336.48928    539.07741 
   10900    197.58424   -861.29846    324.51757    744.22518 
   10920    199.02689   -863.73419    326.88701    677.43258 
   10940    203.50852   -871.17448    334.24775     631.4634 
   10960    197.43092   -861.13117    324.26574    689.13066 
   10980    198.20267   -862.44582    325.53328    718.62156 
   11000    201.03168   -867.03976    330.17973    628.72001 
   11020     200.4729    -866.0741    329.26197    601.94456 
   11040    199.36156    -864.3073    327.43667    716.47563 
   11060    198.87711   -863.52511      326.641    673.86016 
   11080    193.72249    -855.0307    318.17492    802.89871 
   11100    197.73972   -861.60903    324.77293    616.20492 
   11120    201.74877   -868.21363    331.35749    627.44242 
   11140    194.34229   -855.96196    319.19289    839.02816 
   11160    198.41695   -862.69623    325.88522    734.15459 
   11180    201.22162   -867.36696     330.4917    611.80284 
   11200       197.68   -861.46514    324.67484    766.84305 
   11220    197.17682   -860.70116    323.84841    682.12728 
   11240    202.45726   -869.43869    332.52114    615.48988 
   11260    199.02334   -863.73128    326.88117    727.98253 
   11280    192.17923   -852.45867    315.64023    903.23763 
   11300    196.80196   -860.06356    323.23273    744.18059 
   11320    191.93782   -852.01555    315.24373     858.7989 
   11340    200.45952   -866.04955    329.23999    653.38478 
   11360    198.42309    -862.7293    325.89532    680.53698 
   11380    204.10299   -872.08729    335.22413    523.79228 
   11400     197.9027   -861.83188     325.0406    690.68507 
   11420     199.4686   -864.45412    327.61249    675.51465 
   11440    203.50365   -871.18783    334.23976    600.14281 
   11460    196.26337   -859.21784    322.34812     727.7269 
   11480    197.47795   -861.21288    324.34298     731.2636 
   11500    201.71092   -868.22499    331.29533    639.26587 
   11520    202.85441   -870.09849    333.17343    625.29127 
   11540    201.05755    -867.0722    330.22222    633.98479 
   11560    202.23378    -869.0125    332.15408    596.46851 
   11580    196.06311   -858.91339    322.01922    817.97497 
   11600    193.80939   -855.13538    318.31765    856.54725 
   11620    200.68022   -866.47577    329.60249    681.44847 
   11640     194.9591   -856.99428    320.20597    815.96809 
   11660     202.8013   -869.90017     333.0862    557.26013 
   11680    200.90796   -866.73818    329.97652    633.16666 
   11700    192.86455   -853.51375    316.76582    817.70714 
   11720    195.26012   -857.52413    320.70037    792.04714 
   11740    205.36977   -874.13965    337.30472    534.07406 
   11760    199.48505   -864.48539     327.6395    701.71262 
   11780    202.22966   -868.95911    332.14732    627.04199 
   11800    195.12971   -857.28608    320.48617    793.94417 
   11820    199.42878   -864.40788    327.54708    673.44529 
   11840    202.34863   -869.22368    332.34272    659.24549 
   11860     199.4961   -864.50144    327.65765    732.05653 
   11880    197.76227   -861.74534    324.80997    706.48891 
   11900    197.98885   -861.96305     325.1821    667.13961 
   11920    198.61715     -862.985    326.21404    693.20336 
   11940    199.94427   -865.30897    328.39373    657.13471 
   11960    198.26874   -862.49958    325.64179    707.93462 
   11980    197.77898   -861.62426     324.8374    759.94441 
   12000    198.95655   -863.65819    326.77148    706.08115 
   12020    197.83866   -861.76745    324.93543    730.83609 
   12040    197.72018   -861.69787    324.74084    740.79392 
   12060    197.91279   -861.86461    325.05718     739.9044 
   12080    193.27953   -854.29474    317.44738    782.14335 
   12100    197.24309   -860.71443    323.95725    643.60872 
   12120    199.84956   -865.08825    328.23818    692.74882 
   12140    197.18588   -860.74791    323.86328     726.6717 
   12160    197.17842    -860.6664    323.85103    752.90442 
   12180    195.25695    -857.4917    320.69515    767.48369 
   12200    201.05844   -867.00171    330.22368    586.02415 
   12220    206.56278    -876.1539    339.26415    557.92278 
   12240    203.83518   -871.66514    334.78427    576.02084 
   12260    194.82896   -856.81731    319.99221    764.73052 
   12280    201.31062   -867.46683    330.63786    657.30231 
   12300     202.0296   -868.68424    331.81874    585.76272 
   12320    194.88541    -856.8491    320.08493    820.91489 
   12340    198.76761    -863.2873    326.46116    755.92172 
   12360    197.48106   -861.21382     324.3481     780.0035 
   12380    198.08566   -862.19982    325.34111    753.56723 
   12400    203.32008   -870.87982    333.93826     578.8304 
   12420    192.76031   -853.42915    316.59461    833.08922 
   12440    193.72996   -855.07691    318.18719     871.5457 
   12460     192.9659   -853.79058    316.93228    910.10381 
   12480    194.26141   -855.88908    319.06005    814.33666 
   12500    194.69138   -856.61055    319.76625    811.19113 
   12520    200.75131   -866.52846    329.71924    642.29107 
   12540    195.42497   -857.84844    320.97111    785.07715 
   12560    188.62779    -846.6877    309.80725    955.79503 
   12580     195.0334   -857.15171      320.328    802.18735 
   12600    197.04411   -860.46322    323.63043    772.93209 
   12620    197.01694   -860.42943    323.58581    728.52082 
   12640    187.32582   -844.41556    307.66887    933.25856 
   12660    202.55812   -869.62467    332.68679    628.20671 
   12680    197.06085   -860.50895    323.65793    724.14747 
   12700    196.67954   -859.79727    323.03166    753.06747 
   12720     197.5137   -861.29301    324.40171    750.04959 
   12740    208.12381   -878.64674    341.82802    446.22366 
   12760     197.2397    -860.7374    323.95168    715.85064 
   12780    194.78995   -856.67818    319.92815    824.03614 
   12800    198.81989     -863.358    326.54702    757.02205 
   12820    205.30339   -874.14185     337.1957     573.6046 
   12840    202.87542   -870.15123    333.20793    624.51281 
   12860    199.17885   -863.96143    327.13659    661.30734 
   12880    194.48149   -856.20346    319.42152    814.18202 
   12900    193.19363   -854.03012     317.3063    821.64494 
   12920     196.4304   -859.41015    322.62247    724.17379 
   12940    199.42045   -864.40645    327.53339    725.55996 
   12960    199.06482   -863.76669     326.9493    715.50844 
   12980    198.95447   -863.65001    326.76807    686.00904 
   13000    202.49266   -869.41527    332.57928    567.04514 
   13020    194.20252   -855.76072    318.96333    764.39381 
   13040    197.41257   -861.02701     324.2356    698.47824 
   13060    195.85179   -858.50121    321.67213    734.68945 
   13080    200.24511   -865.70626    328.88785    597.77441 
   13100    192.90385   -853.70776    316.83036    801.33466 
   13120    205.48581   -874.31564    337.49531    504.32915 
   13140    192.60407   -853.10545      316.338    837.99973 
   13160    196.20694    -859.0654    322.25545    762.06318 
   13180    202.29994   -869.10231    332.26274    595.14057 
   13200     197.7578   -861.66035    324.80262    721.06729 
   13220    197.31227   -860.95374    324.07087    696.56199 
   13240    194.77685   -856.69256    319.90663    740.66811 
   13260    196.13739   -858.95725    322.14121    755.88119 
   13280    200.03022   -865.40782    328.53489     704.8339 
   13300    197.92784   -861.88477     325.0819    694.61918 
   13320    196.30342   -859.29366     322.4139    738.69142 
   13340    196.81417   -859.99427    323.25277    701.49531 
   13360    197.29494   -860.82608     324.0424    652.99392 
   13380      199.789   -864.97714    328.13871    662.16829 
   13400    201.56864   -867.90885    331.06164    676.95983 
   13420    193.85409    -855.3006    318.39107    818.68347 
   13440    196.05404   -858.76206    322.00431    718.29868 
   13460    199.53304   -864.55616    327.71833    665.36341 
   13480    196.35462   -859.32687    322.49801      779.402 
   13500    194.97627    -857.1291    320.23416    837.03971 
   13520    196.53663   -859.54936    322.79693     749.8589 
   13540    200.77778   -866.67374    329.76271    667.36251 
   13560    199.60919   -864.65558     327.8434    680.54623 
   13580    198.09845   -862.10716    325.36212    681.47822 
   13600    203.79582   -871.59709    334.71963    600.02827 
   13620    196.13298   -859.04206    322.13397     720.8365 
   13640    196.01387   -858.76883    321.93834    739.57645 
   13660    195.83917   -858.40796    321.65141     777.6305 
   13680    198.04889   -862.05092    325.28072    704.53779 
   13700    195.92773   -858.51874    321.79687    765.45512 
   13720    192.49675   -852.92368    316.16174    882.41363 
   13740      198.821   -863.42411    326.54885    774.32587 
   13760    199.12771   -863.84088     327.0526    741.72286 
   13780    195.53713   -857.93615    321.15534    781.44486 
   13800    196.60871   -859.75629    322.91532    749.33917 
   13820    196.39146   -859.36245    322.55851    749.23432 
   13840    198.38839   -862.74281    325.83831    721.33464 
   13860    196.76732   -860.01525    323.17583    764.17681 
   13880    201.01362   -867.03004    330.15006    662.08851 
   13900    198.94894   -863.65015    326.75898    728.00076 
   13920    199.57254   -864.62901    327.78319    766.59715 
   13940    194.13546   -855.67727    318.85319    832.40093 
   13960    197.14904     -860.615    323.80278    757.98587 
   13980    202.77163   -869.89904    333.03747    637.76074 
   14000     202.3697   -869.26813    332.37733    605.41972 
   14020    200.75602   -866.54285    329.72698    639.90445 
   14040    196.90695   -860.21962    323.40516    724.46601 
   14060    192.49605   -852.91804    316.16058    819.60984 
   14080    200.91186    -866.8185    329.98293    687.25674 
   14100    200.72103   -866.34814     329.6695    606.21712 
   14120    188.80906   -846.90574    310.10497    899.79762 
   14140    195.46915   -857.86458    321.04368    794.61676 
   14160    203.11586   -870.39972    333.60283    615.51772 
   14180     196.7588   -859.87841    323.16183      740.372 
   14200    195.43642   -857.78943    320.98992    749.62561 
   14220    197.94737   -862.03013    325.11397    789.63917 
   14240     200.2597   -865.74611    328.91181    725.54373 
   14260    193.87296   -855.21784    318.42205    856.33184 
   14280    196.22895   -859.15724     322.2916    793.52237 
   14300    201.36951   -867.62073    330.73458    661.64731 
   14320     202.0949   -868.75939    331.92598    703.24325 
   14340    193.97963   -855.38797    318.59725     859.6278 
   14360    197.44783   -861.18234    324.29351    665.03756 
   14380    199.00851   -863.71223    326.85681    747.38189 
   14400     197.9418   -861.95488    325.10483      766.956 
   14420    194.96201   -857.06592    320.21075    767.47142 
   14440    195.28802   -857.58663    320.74618    788.07588 
   14460    201.71604   -868.25609    331.30374    647.92389 
   14480    198.37737   -862.72803    325.82022    716.27645 
   14500    201.14126   -867.27267     330.3597    717.86824 
   14520    193.58706   -854.83888    317.95248    882.82989 
   14540    195.10646    -857.2544    320.44798    839.02958 
   14560     196.0472   -858.85638    321.99308    757.73744 
   14580    192.08665   -852.26711    315.48817    796.27484 
   14600    196.63336   -859.72443     322.9558    738.76247 
   14620    200.01155   -865.38937    328.50424    681.22917 
   14640    190.65703    -850.0366    313.14013    950.48408 
   14660    195.10998   -857.30343    320.45377    757.86039 
   14680     198.6219   -863.01586    326.22184    653.77346 
   14700    190.19136   -849.09904    312.37531    852.33124 
   14720    198.07981   -862.14859    325.33149    607.39897 
   14740    198.45872   -862.74078    325.95382    653.23006 
   14760    204.04572   -871.97828    335.13006    587.58841 
   14780    198.16243   -862.28157    325.46719    743.02995 
   14800    193.80461   -855.18303    318.30979    828.30359 
   14820    195.64594   -858.16403    321.33404    786.86748 
   14840    193.35739   -854.41472    317.57527    826.68952 
   14860    199.26615   -864.16067    327.27998    743.14461 
   14880     202.4048   -869.23608    332.43497    671.90999 
   14900    196.92003   -860.25659    323.42665    743.60247 
   14920    192.77407   -853.38867     316.6172    861.40301 
   14940    199.09474   -863.89428    326.99844    703.60157 
   14960    196.20295   -858.98712     322.2489    803.05516 
   14980    201.22276   -867.41126    330.49357    697.22109 
   15000    197.86061   -861.87306    324.97147    721.81986 
   15020    196.26185   -859.28529    322.34562    753.29522 
   15040    204.32237   -872.54113    335.58444    524.43177 
   15060    192.96579   -853.69024     316.9321    823.40017 
   15080     196.5526   -859.61057    322.82317    768.09593 
   15100    193.95396   -855.40989    318.55509    801.05385 
   15120    202.60656   -869.55478    332.76634    596.74007 
   15140    199.18435   -864.01872    327.14562    705.12439 
   15160     196.9174   -860.21252    323.42233    751.64598 
   15180    192.16205    -852.4514    315.61201    833.81045 
   15200    196.56739   -859.71287    322.84746    718.20611 
   15220    196.75298    -859.9674    323.15227    692.47813 
   15240    198.02286   -861.99896    325.23797    633.24661 
   15260    193.85779   -855.21246    318.39713    794.57624 
   15280      198.125   -862.29986    325.40572    727.03287 
   15300    195.59428   -858.00095     321.2492     687.1379 
   15320    191.20122   -850.87164    314.03391    851.08172 
   15340    202.16003   -868.89579    332.03295     578.0493 
   15360    197.36354   -861.00932    324.15508    708.24195 
   15380    198.13973    -862.3411    325.42992    732.80331 
   15400    196.76488   -859.89111    323.17183    679.75835 
   15420    206.47097   -876.01651    339.11336     474.1305 
   15440    199.40468   -864.31514     327.5075    654.68116 
   15460    200.04699    -865.3762    328.56245    672.24013 
   15480    198.81798   -863.42699    326.54388    670.16466 
   15500    201.81666   -868.28859      331.469    702.07605 
   15520    195.71748   -858.28702    321.45155    772.61385 
   15540    199.20823   -863.94639    327.18485     675.2002 
   15560    196.40216   -859.37064    322.57608     750.5304 
   15580    197.98713   -862.00547    325.17928    693.44354 
   15600    199.95097   -865.24128    328.40475    667.64327 
   15620    198.21053   -862.41937     325.5462    707.79667 
   15640    198.54178   -862.94904    326.09025    699.02153 
   15660    205.50276   -874.43729    337.52314    529.91426 
   15680    196.90876    -860.2252    323.40813    731.10959 
   15700    194.69675   -856.61823    319.77506    773.31413 
   15720    202.34841    -869.1796    332.34235    604.82692 
   15740    197.65474    -861.5782    324.63335    740.18514 
   15760    201.11391    -867.1879    330.31478    670.51235 
   15780    200.56314   -866.33584    329.41018    637.66048 
   15800    193.71944   -854.98334    318.16991     780.7216 
   15820    196.75512   -859.98463     323.1558    724.29305 
   15840    199.37168   -864.31629    327.45329    652.74652 
   15860    197.38753   -861.03526    324.19448    734.98923 
   15880    198.53109   -862.85788     326.0727    741.23046 
   15900    194.88919   -857.04243    320.09113    770.23825 
   15920    197.28219   -860.85999    324.02146    688.05355 
   15940    198.90833   -863.55066    326.69228     654.6889 
   15960    199.64382   -864.77318    327.90026    656.47232 
   15980     195.1337    -857.2954    320.49273    793.80624 
   16000    200.35707   -865.89834    329.07173    724.66423 
   16020    198.61462   -863.12239    326.20989    752.59745 
   16040    199.17766   -864.08704    327.13463    688.97739 
   16060    199.42969   -864.45223    327.54857     681.5205 
   16080    195.07131    -857.1709    320.39026    793.43223 
   16100    196.02596   -858.84437    321.95819     796.8996 
   16120    201.19393   -867.25288    330.44621    610.83723 
   16140    198.16193   -862.26436    325.46638    700.27427 
   16160    198.82116   -863.38059    326.54911    733.09827 
   16180    202.88508   -870.06839     333.2238    590.15288 
   16200     200.1816   -865.65643    328.78353    681.36993 
   16220    199.35199   -864.30524    327.42096    660.00619 
   16240    191.87735   -851.96463    315.14442    830.21824 
   16260    198.62418   -863.04203    326.22558    709.06731 
   16280    202.80073   -869.95071    333.08526    586.77191 
   16300     205.7755   -874.87719    337.97111    506.80111 
   16320    187.36264    -844.5602    307.72934    957.72807 
   16340    201.78358   -868.28829    331.41466    649.68129 
   16360    195.69938   -858.16015    321.42181    736.09231 
   16380    204.67999   -873.00901     336.1718    579.07682 
   16400    201.52016   -867.85614    330.98201    674.50999 
   16420    200.06684   -865.48195    328.59505    689.41909 
   16440    199.73149   -864.82666    328.04426    612.36591 
   16460    200.06514   -865.44421    328.59225    601.15294 
   16480    192.95053   -853.70588    316.90704     794.4207 
   16500    197.69161    -861.5432     324.6939     668.1097 
   16520    189.26638   -847.64534    310.85608    935.94983 
   16540    206.87531   -876.60442    339.77747    571.43096 
   16560    197.56136   -861.31167    324.47998    710.16348 
   16580    194.43873   -856.21683    319.35129    786.20869 
   16600    194.36628   -856.06174     319.2323    840.71286 
   16620    200.89603   -866.77909    329.95693    648.72398 
   16640    194.25253   -855.85177    319.04547    775.76572 
   16660    193.52126   -854.64243    317.84442    809.17389 
   16680    197.31573   -860.77671    324.07655    743.23434 
   16700    200.66966   -866.41657    329.58513    688.23207 
   16720    192.59779   -853.18483    316.32768    843.32239 
   16740     197.2628   -860.85007    323.98961    729.03842 
   16760    193.41651   -854.54797    317.67238    782.99037 
   16780    191.87657   -851.93043    315.14314    865.58702 
   16800    196.34971    -859.3479    322.48994    738.31218 
   16820    194.89841   -856.86294    320.10628    793.96663 
   16840    200.01714   -865.38733    328.51342    652.40656 
   16860    191.33013   -851.02774    314.24564    814.67485 
   16880    200.60995   -866.35914    329.48706    638.22832 
   16900    198.15077   -862.31571    325.44804    763.17303 
   16920    201.07997   -867.11273    330.25904    605.13657 
   16940    204.11038   -872.09213    335.23627    522.13946 
   16960    202.57985   -869.58996    332.72248    600.83288 
   16980    200.99092   -867.00575    330.11278    647.47192 
   17000    190.79617   -850.11406    313.36866    895.77875 
   17020    198.93137   -863.53151    326.73013    697.29297 
   17040    191.84071    -851.9077    315.08423    900.66907 
   17060    201.62847   -868.09087    331.15991    663.75734 
   17080    199.01313   -863.71362    326.86441    717.23296 
   17100    198.27104   -862.51588    325.64557    683.46552 
   17120    189.62909   -848.30847    311.45182    878.49853 
   17140    197.85495   -861.82356    324.96217    681.05052 
   17160     197.7365   -861.68134    324.76763    709.39373 
   17180    195.71235   -858.24867    321.44312    677.78951 
   17200    205.58707   -874.50907    337.66162    447.71964 
   17220    199.97329   -865.30467     328.4414    651.66834 
   17240    196.99108   -860.30286    323.54333    746.11192 
   17260    197.85019   -861.83834    324.95436    710.20227 
   17280    197.10127    -860.5606    323.72432     730.1126 
   17300    196.56649   -859.60281    322.84598    698.35981 
   17320    193.83028   -855.12873    318.35195    794.81633 
   17340    198.76385   -863.25232    326.45498    690.48131 
   17360    197.78548   -861.60965    324.84808     730.9674 
   17380    201.51534   -867.80568    330.97411    620.62436 
   17400    188.59902   -846.47639       309.76    901.89683 
   17420    191.23425   -850.85931    314.08816    804.69096 
   17440    194.50388   -856.26521     319.4583    796.32759 
   17460    200.85085   -866.80458    329.88272    609.99104 
   17480    201.34524   -867.58666    330.69473    601.08289 
   17500    198.02512   -862.10864    325.24168    694.69221 
   17520    199.70457   -864.85946    328.00005    650.80383 
   17540    196.45553   -859.43697    322.66374    707.48905 
   17560    196.02798    -858.7743    321.96152    772.89029 
   17580    192.25287   -852.61056    315.76118     896.4279 
   17600    198.96114   -863.66714    326.77902    713.92031 
   17620    195.57069   -858.06548    321.21045    807.88275 
   17640    189.20411   -847.56642    310.75381    908.62324 
   17660    200.48249   -866.11473    329.27773    640.69223 
   17680    192.56255   -853.12093    316.26981    842.67816 
   17700    193.55303   -854.73062     317.8966    810.20607 
   17720    191.98779   -852.10888     315.3258    836.23217 
   17740     197.8697   -861.75418    324.98641    646.65765 
   17760    199.64441   -864.74567    327.90123    680.01119 
   17780    197.37585   -860.99038     324.1753    668.23359 
   17800     193.6219    -854.7906    318.00971    792.36235 
   17820    198.44532   -862.77083    325.93182    711.32912 
   17840    198.92256   -863.56247    326.71566    718.90047 
   17860    193.83438   -855.20029    318.35869    889.37461 
   17880    201.04803   -867.06624    330.20658    690.59145 
   17900    196.57515   -859.68197     322.8602    777.66028 
   17920    194.27065   -855.91863    319.07523    782.44834 
   17940    196.41607   -859.42902    322.59893    710.67996 
   17960    195.14361   -857.33205      320.509    729.34958 
   17980    193.27952   -854.21636    317.44738    774.20948 
   18000    197.73771   -861.63783    324.76963    684.48875 
   18020     197.9818   -861.96555    325.17053    697.79147 
   18040    194.42519   -856.15148    319.32905    854.05488 
   18060    196.71162   -859.94998    323.08435    738.50771 
   18080    205.54809   -874.50493    337.59759    548.22649 
   18100    198.33411   -862.61472    325.74917    722.19876 
   18120    191.73489   -851.73808    314.91043     844.3399 
   18140    201.13563   -867.17821    330.35045    630.35746 
   18160    197.23452   -860.74222    323.94318    800.72969 
   18180    198.70833   -863.24915     326.3638    715.79679 
   18200    197.80161   -861.71818    324.87458    697.44653 
   18220     194.6772    -856.5132    319.74295    738.02092 
   18240    200.69147   -866.45859    329.62096    609.63526 
   18260    193.76597   -855.05083    318.24633    777.66609 
   18280    194.28521   -855.96805    319.09914    749.04122 
   18300    196.49451   -859.53026    322.72776    717.14272 
   18320    194.80814   -856.60642    319.95803    734.42043 
   18340    193.77716   -855.10628    318.26472    751.37972 
   18360    195.50589   -857.92464    321.10403    769.87934 
   18380     198.9922   -863.63158    326.83003    699.06432 
   18400    195.60924   -858.12003    321.27376    807.29802 
   18420     197.1255   -860.56147    323.76411    783.37412 
   18440    198.00687   -861.98366    325.21169    730.50633 
   18460    204.37245   -872.51932    335.66669     562.8262 
   18480    202.44694   -869.44126    332.50418    615.44761 
   18500    190.45352   -849.70261    312.80587    876.67516 
   18520    194.41591   -856.08507    319.31381    790.37707 
   18540    197.69678   -861.55341     324.7024    790.11605 
   18560    191.92398   -852.01727    315.22099     897.8233 
   18580    199.45542    -864.4617    327.59083    719.42173 
   18600    204.04801     -872.039    335.13382    625.77609 
   18620    199.50458   -864.50656    327.67158    699.24934 
   18640    195.59519   -858.10144    321.25069    720.79286 
   18660    196.15465   -859.00553    322.16957     770.2987 
   18680    195.41121   -857.79402    320.94852    784.39671 
   18700    199.04747   -863.74047     326.9208    666.84395 
   18720    200.16438   -865.63038    328.75525    667.04291 
   18740     196.5135   -859.62781    322.75895    813.92557 
   18760    201.55456   -867.88101    331.03851    619.38754 
   18780    195.17271   -857.38916    320.55681    803.73265 
   18800     193.1297   -853.93367     317.2013    809.88928 
   18820    194.11847   -855.67059    318.82528    802.95157 
   18840    199.95779   -865.28497    328.41594     673.7185 
   18860    199.05791   -863.84551    326.93795    722.97746 
   18880    196.80254   -860.01377    323.23367    763.89929 
   18900    196.19638   -859.15456     322.2381    779.24301 
   18920    197.29453   -860.95555    324.04174     774.3162 
   18940    201.25592   -867.45332    330.54803    678.72552 
   18960    193.16417    -854.1471    317.25792    833.36162 
   18980    198.32677   -862.69618    325.73711    692.43389 
   19000    198.47831   -862.90307      325.986    741.19452 
   19020    197.29891   -860.86585    324.04892    754.54732 
   19040    189.60483   -848.22024    311.41197    937.27381 
   19060    196.48734   -859.60093    322.71599     777.1638 
   19080    195.87403   -858.56538    321.70867    811.67029 
   19100    197.93195   -861.87169    325.08865    698.34573 
   19120    200.92808   -866.84391    330.00957     630.1107 
   19140    199.64434   -864.78637    327.90112    670.82748 
   19160    200.02193   -865.35807    328.52128    665.60262 
   19180    201.74035   -868.23294    331.34366    652.09757 
   19200    199.88831   -865.17484    328.30182    633.62305 
   19220    195.75352   -858.39063    321.51074    756.17587 
   19240    198.88242   -863.49042    326.64973    707.09165 
   19260    203.46515   -870.97617    334.17653    611.94077 
   19280    195.80581   -858.40355    321.59662    679.71486 
   19300     199.0707   -863.76876    326.95896    661.24394 
   19320    195.64099   -858.10522    321.32592     715.8043 
   19340    197.95716   -862.00864    325.13005    725.48158 
   19360    198.20351   -862.38479    325.53466    709.24934 
   19380    192.20741   -852.48331    315.68651      820.829 
   19400    202.50912    -869.4241    332.60631     619.6831 
   19420    196.81084   -860.11538     323.2473    704.61113 
   19440    193.23208    -854.2243    317.36946    778.76403 
   19460    201.36482    -867.5796    330.72688    633.61023 
   19480    193.79174   -855.07949    318.28865     794.2914 
   19500    201.75765     -868.247    331.37208    622.68777 
   19520     188.4467   -846.21495    309.50983    958.87777 
   19540     195.7824   -858.38619    321.55817    782.05133 
   19560     197.0535   -860.45587    323.64586    740.70253 
   19580    198.47005   -862.72042    325.97244    697.92578 
   19600    200.69915   -866.40832    329.63357    658.41351 
   19620    199.46122   -864.54678    327.60035    702.31127 
   19640    195.01795   -857.13621    320.30261    809.37785 
   19660    194.84898   -856.90897     320.0251    837.55103 
   19680    193.03651   -853.97266    317.04825     796.3621 
   19700    203.78774   -871.52548    334.70634    571.29342 
   19720    203.31459   -870.76604    333.92924    626.93897 
   19740    192.82571   -853.44848    316.70203    879.16673 
   19760    195.87493   -858.53006    321.71015    792.00109 
   19780    191.33037   -851.02672    314.24603    872.40469 
   19800    195.53663   -858.03448     321.1545     795.5783 
   19820    195.39252   -857.67854    320.91783    756.65356 
   19840    201.93857    -868.5286    331.66923    599.41326 
   19860    197.52526   -861.27956    324.42069    781.88965 
   19880    199.45343   -864.50973    327.58757    689.14881 
   19900    194.46915   -856.22537    319.40126    791.61825 
   19920    194.06786    -855.5692    318.74216    819.59595 
   19940    196.62845   -859.77917    322.94774      768.731 
   19960     196.7841    -860.0498    323.20339    794.16938 
   19980    203.67706   -871.40518    334.52457    595.72728 
   20000    194.93934   -857.03504     320.1735    797.83168 
   20020    197.64254     -861.434     324.6133     734.3576 
   20040     193.2719   -854.29932    317.43485    861.00911 
   20060    199.95777   -865.26323    328.41591    655.81464 
   20080    202.02802    -868.6853    331.81614     586.1986 
   20100    196.94669   -860.36753    323.47043    757.56654 
   20120    196.21891   -859.06275    322.27511    737.73643 
   20140    200.78469   -866.56817    329.77406    659.11223 
   20160    194.67966   -856.53348    319.74699    772.31409 
   20180    198.38629   -862.65063    325.83486    697.27406 
   20200    198.02361   -862.01658    325.23919    687.71173 
   20220    200.90656   -866.78864    329.97422    659.87619 
   20240    198.06263   -862.16443    325.30328    713.13397 
   20260    203.49862   -871.15459     334.2315    571.47617 
   20280    201.16358   -867.20549    330.39636    619.02124 
   20300     196.5307   -859.67369    322.78719    807.59101 
   20320    199.26174   -864.09269    327.27273    726.19691 
   20340    202.39356   -869.26458    332.41652    650.02484 
   20360     192.1401    -852.4484    315.57596    830.85478 
   20380    193.71848   -854.97389    318.16833    855.86377 
   20400     200.4129   -866.05473    329.16343    707.42902 
   20420    199.74513   -864.85734    328.06667    664.34146 
   20440    192.87152   -853.59601    316.77726    851.23772 
   20460    198.03084    -862.0568    325.25106    722.67341 
   20480    193.80482   -855.19982    318.31015    831.46721 
   20500      197.938   -861.93314    325.09858     700.9447 
   20520     195.4648   -857.87919    321.03654    751.05259 
   20540     206.5491   -876.12037    339.24168    538.35942 
   20560    196.01371   -858.74171    321.93808    736.41968 
   20580    190.39018   -849.47926    312.70184    849.58144 
   20600    200.07033   -865.49842    328.60078    618.61456 
   20620    197.89025   -861.87007    325.02015    723.80931 
   20640    192.66831   -853.25209    316.44351    875.96841 
   20660     195.5125   -857.91791    321.11488    766.78575 
   20680     196.2961   -859.14414    322.40188    750.32048 
   20700    201.23149   -867.30482    330.50789    625.04252 
   20720     198.4384    -862.7765    325.92046    763.49301 
   20740     198.9251   -863.55867    326.71983    747.41772 
   20760     191.8427   -852.02413    315.08751     893.6238 
   20780    192.56058   -853.09975    316.26657    888.95412 
   20800    201.30521    -867.4856    330.62898    646.21776 
   20820    201.33845   -867.45813    330.68357    629.79807 
   20840    200.37621   -865.91944    329.10316    645.89463 
   20860    198.03753   -862.10662    325.26206     713.1758 
   20880    198.54593   -862.95243    326.09707    722.33274 
   20900    200.69823   -866.52897    329.63206    668.94685 
   20920    199.96696   -865.29147      328.431    698.87529 
   20940    194.59191   -856.43213    319.60289    805.55767 
   20960    194.89392   -856.96834    320.09891    800.48141 
   20980    193.18904   -854.11123    317.29876    814.96148 
   21000    199.26099   -864.05426     327.2715    713.03772 
   21020    195.74249    -858.3007    321.49261     744.9019 
   21040    204.01971    -871.9343    335.08734    546.35582 
   21060    197.12972   -860.62872    323.77105     663.4245 
   21080    197.60318   -861.36961    324.54867    692.77363 
   21100    198.07184   -862.10665    325.31841    719.85774 
   21120    195.88506   -858.58317    321.72679    771.99854 
   21140    199.06707   -863.83112      326.953    614.29668 
   21160    202.27029   -869.12151    332.21405    583.24795 
   21180    204.18881   -872.18261    335.36508    510.78207 
   21200     201.4167   -867.71055    330.81209    533.34483 
   21220    197.30478   -860.84809    324.05857    697.70861 
   21240     196.0578   -858.82514     322.0105    720.42582 
   21260    198.08545   -862.26874    325.34076    745.53295 
   21280    204.11068   -872.11995    335.23675    615.59516 
   21300      198.579   -863.01589    326.15138    713.67679 
   21320    205.09817   -873.78693    336.85863    605.74756 
   21340    197.48974   -861.17158    324.36235    745.43425 
   21360    192.88758    -853.6032    316.80363     864.5815 
   21380    200.98616   -867.00462    330.10496    679.70566 
   21400    201.21185   -867.31797    330.47565    701.72261 
   21420    194.42304    -856.1617    319.32551    832.34642 
   21440    203.02078   -870.26117    333.44667    582.81556 
   21460    197.86863   -861.76462    324.98465    739.95583 
   21480    194.31707   -855.98148    319.15147     798.5954 
   21500    189.42607   -847.79463    311.11836    829.99193 
   21520    196.11251   -858.90327    322.10035    713.65405 
   21540     201.2477   -867.39117    330.53453    625.10085 
   21560    191.38685   -851.09466     314.3388    909.27243 
   21580      196.248   -859.11988    322.32289    761.29115 
   21600    192.42835   -852.84465     316.0494    839.59377 
   21620    201.04871   -866.99953    330.20769    640.73818 
   21640      193.284     -854.318    317.45474     866.8086 
   21660    193.84898   -855.23257    318.38267    830.12638 
   21680    193.69916   -854.83739    318.13661    809.52904 
   21700    192.21564   -852.43467    315.70002    843.54915 
   21720    198.95108   -863.52321    326.76249    736.36967 
   21740    204.46965   -872.64128    335.82634    568.98642 
   21760    198.67818   -863.12207    326.31428    655.27337 
   21780    197.67045   -861.43857    324.65915    713.35127 
   21800    196.45046   -859.49531    322.65541    790.76107 
   21820    194.85432   -856.79275    320.03387    809.55726 
   21840     198.3014   -862.47509    325.69544    710.30483 
   21860    195.10952    -857.3148    320.45301    762.71807 
   21880    196.86354   -860.11263    323.33386    705.65487 
   21900    191.99653   -852.07269    315.34017    822.64572 
   21920    194.19384   -855.77738    318.94907    744.36317 
   21940    195.79066   -858.33547    321.57173    759.68439 
   21960    196.89797   -860.24081    323.39041    771.99856 
   21980    194.27352   -855.99118    319.07995    852.27507 
   22000    210.49173   -882.65203    345.71717    512.08866 
   22020    198.45113   -862.87695    325.94135    713.04439 
   22040    195.43575   -857.85627    320.98883    787.24623 
   22060    201.79556   -868.35265    331.43434    641.68727 
   22080    201.08731   -867.11407     330.2711    628.42989 
   22100    198.47413   -862.85045    325.97914    681.94542 
   22120    194.43822   -856.24012    319.35046    806.00007 
   22140    198.57842   -862.95682    326.15043    735.10708 
   22160    200.68603   -866.44499    329.61202    737.25219 
   22180    195.76007   -858.35961    321.52149     815.8682 
   22200    195.34652   -857.68456    320.84227    813.53342 
   22220    194.22694   -855.78904    319.00345    848.46228 
   22240    197.21546   -860.72008    323.91186    747.16398 
   22260     192.1079   -852.28668    315.52307    852.50084 
   22280    200.79692   -866.62648    329.79414    641.81409 
   22300    198.92979   -863.60838    326.72752    753.87555 
   22320    201.19563   -867.27324      330.449     707.6129 
   22340    201.99934   -868.65088    331.76904    625.04287 
   22360    194.99964   -857.13166    320.27254    785.03215 
   22380    199.66541   -864.79364    327.93573    678.52636 
   22400    192.30185   -852.68431    315.84162    833.53482 
   22420    194.76375   -856.66323    319.88511    807.27306 
   22440    192.89981   -853.61862    316.82373    863.40174 
   22460    204.67464   -872.94597    336.16302    583.44159 
   22480    201.29791   -867.51035      330.617    640.18215 
   22500    194.87422   -856.88464    320.06655    819.00199 
   22520    201.61737   -867.99808    331.14167    623.90657 
   22540    201.24329   -867.36459    330.52728    604.86676 
   22560    195.76901   -858.31787    321.53618    686.11593 
   22580    195.21941   -857.41322    320.63349    748.39392 
   22600    203.35745   -870.87644    333.99964    590.36556 
   22620    194.63669   -856.44598    319.67643     764.1036 
   22640    200.62594   -866.32369    329.51334    669.32289 
   22660    198.88142   -863.46343    326.64809    651.75249 
   22680    198.38001   -862.69093    325.82456    715.58745 
   22700    195.71797   -858.18574    321.45235    728.17144 
   22720    201.29763   -867.44702    330.61652    629.73946 
   22740     198.7326   -863.22966    326.40365    651.59726 
   22760    199.11557   -863.90813    327.03266    720.11212 
   22780    199.27023   -864.08384    327.28667    654.96634 
   22800    197.03424   -860.40272    323.61423    738.66216 
   22820    193.98429   -855.37231     318.6049      785.549 
   22840    194.03174   -855.41731    318.68283    810.70183 
   22860    196.13139   -859.01778    322.13136    789.11847 
   22880    200.43049   -866.07105    329.19232    746.51561 
   22900    197.52396   -861.23066    324.41855    756.37293 
   22920    191.38224   -851.10082    314.33123    878.52754 
   22940    202.44223   -869.39795    332.49645     645.4705 
   22960    192.21103   -852.45308    315.69246    866.00722 
   22980     195.1036   -857.21008    320.44329    791.41624 
   23000    198.08427   -862.18973    325.33882    728.34382 
   23020    194.76158   -856.74794    319.88154    805.08449 
   23040    194.68063   -856.64112    319.74859    822.47628 
   23060    201.31276   -867.54678    330.64138    642.89943 
   23080    203.73164   -871.55115    334.61421    569.95279 
   23100    202.84945   -869.97906    333.16529     610.7082 
   23120     199.7079   -864.81868    328.00552     687.8879 
   23140    199.40135   -864.37738    327.50202    690.45418 
   23160    198.03225   -862.15537    325.25338    747.46204 
   23180    195.13665   -857.28815    320.49757    820.45985 
   23200     193.7142   -854.96279    318.16131    860.24505 
   23220    191.77474   -851.81882    314.97589    882.08711 
   23240    196.46978   -859.61321    322.68714    788.31209 
   23260    193.17076    -854.0829    317.26874    864.82133 
   23280    200.12524   -865.53346    328.69097    704.93278 
   23300    199.83924   -865.02526    328.22123    702.75498 
   23320    200.83238   -866.76483     329.8524    670.25857 
   23340    193.85926   -855.17076    318.39955    792.50615 
   23360    198.83331   -863.32018    326.56906    648.40466 
   23380    192.18281   -852.44889    315.64611    832.42933 
   23400    200.17163   -865.69909    328.76716    707.33957 
   23420    197.63878   -861.43915    324.60714    718.29326 
   23440    201.78203   -868.28842    331.41213    622.51439 
   23460    204.11439   -872.15207    335.24285    551.29699 
   23480    203.90367   -871.88156    334.89676    563.09532 
   23500    195.51696   -857.99007    321.12221    736.39227 
   23520    196.56833    -859.7162    322.84901     710.6295 
   23540    194.45497   -856.18042    319.37797    781.89424 
   23560    199.58077   -864.67577    327.79672    724.13557 
   23580    201.90983   -868.49642    331.62203    655.99466 
   23600     198.7735   -863.25635    326.47083    692.61105 
   23620    197.09324   -860.54944    323.71112    665.98172 
   23640    199.77084   -864.90046    328.10889    657.80448 
   23660    205.38383   -874.18322    337.32781    567.39852 
   23680    201.01314   -867.09444    330.14927    660.17596 
   23700    198.06515   -862.15073    325.30742    697.96412 
   23720    201.64037   -867.91239    331.17945    570.10364 
   23740    202.42185   -869.27874    332.46298    553.83078 
   23760    196.38971   -859.36513    322.55563    729.16587 
   23780    195.38596   -857.74961    320.90705    738.88309 
   23800    195.09755   -857.20543    320.43335    793.46155 
   23820     191.6932   -851.63265    314.84197    877.91676 
   23840    198.17133   -862.26761    325.48181    724.03645 
   23860    200.78241     -866.737    329.77031    660.19968 
   23880    197.78149   -861.69958    324.84153    718.83869 
   23900     196.1039   -858.89301     322.0862    738.14031 
   23920    199.91303   -865.16498    328.34243     634.3954 
   23940    199.81558   -864.92542    328.18237    609.47523 
   23960    196.48135   -859.44689    322.70615    700.32102 
   23980     196.6285     -859.705    322.94782    691.63431 
   24000    202.03602   -868.64557    331.82928    613.76961 
   24020    196.47304   -859.52989    322.69249    728.24859 
   24040     190.7396    -850.0523    313.27575    857.56216 
   24060    198.43935   -862.80397    325.92201    708.01196 
   24080    207.10172   -877.03591    340.14932    479.97978 
   24100     199.0062    -863.7343    326.85303    689.29633 
   24120     200.4161   -865.99579    329.16868    626.83318 
   24140    197.29034   -860.91189    324.03485    733.76232 
   24160    199.64315   -864.73487    327.89916      689.088 
   24180    204.28253   -872.38996    335.51901    578.29384 
   24200    192.85961   -853.59584    316.75771    842.53113 
   24220    196.97207   -860.36574    323.51212    714.10015 
   24240    194.02118   -855.48128     318.6655    852.80271 
   24260    197.36329   -860.90098    324.15466    774.79531 
   24280     200.1489   -865.55516    328.72982    671.06742 
   24300    193.59537   -854.73162    317.96614     817.6493 
   24320    194.87631   -856.86472    320.06999    755.33368 
   24340    202.33667   -869.20512    332.32307    595.99517 
   24360    198.40899   -862.74476    325.87214    710.37695 
   24380    199.67243   -864.87306    327.94725    671.30499 
   24400    200.95367   -866.93322     330.0516    684.69492 
   24420     202.6231   -869.65672    332.79351    625.63036 
   24440    204.83007   -873.34935     336.4183    592.29745 
   24460    199.72439     -864.934     328.0326    674.38463 
   24480    190.86309   -850.35946    313.47857    914.61935 
   24500    192.24656    -852.6066    315.75081    897.49616 
   24520    200.39756   -865.99957    329.13824    643.33593 
   24540    199.12142   -863.94876    327.04227    679.97501 
   24560      204.883   -873.36822    336.50524    561.31894 
   24580    201.62256   -868.00288    331.15019    664.74076 
   24600    196.38336   -859.35539    322.54521    784.75938 
   24620     199.7831   -864.97822    328.12902    727.23214 
   24640    198.58014   -863.03806    326.15324    754.15064 
   24660    192.00454    -852.1034    315.35331    814.25262 
   24680    200.51917   -866.23967    329.33796    650.04508 
   24700    197.40774   -861.13044    324.22767    763.68056 
   24720    193.86153   -855.29707    318.40327    847.36106 
   24740    198.96683   -863.67363    326.78836    700.48114 
   24760    202.00433   -868.64855    331.77723     615.6927 
   24780    196.59321   -859.77402    322.88986    737.00472 
   24800    199.79454   -865.06252    328.14782     669.4649 
   24820    194.88768    -856.8943    320.08866    779.99349 
   24840    195.56506   -858.07201    321.20121    745.85028 
   24860    192.37688   -852.77438    315.96485    779.26195 
   24880    192.72204   -853.35123    316.53176    790.27159 
   24900    197.47522   -861.15451     324.3385    689.25183 
   24920    197.03365   -860.49764    323.61325    681.02491 
[...]
  195780    191.20551   -850.88473    314.04097    894.43141 
  195800    196.99198   -860.38654    323.54481     755.8051 
  195820    198.49819    -862.9161    326.01865    707.19136 
  195840    190.72002   -850.07996    313.24358    831.01844 
  195860    198.21112   -862.39455    325.54717    744.60484 
  195880     192.4887   -852.99857    316.14851    882.74975 
  195900    193.91195   -855.33296    318.48609    870.38934 
  195920    199.36695   -864.39393    327.44553    683.47687 
  195940    199.03265   -863.81561    326.89647    687.19903 
  195960    202.14355   -868.95217     332.0059    627.47106 
  195980     194.5447   -856.37654    319.52535    782.51311 
  196000    192.85529   -853.60775     316.7506    826.47487 
  196020    200.41989   -866.07984    329.17491    666.81803 
  196040    192.29483    -852.6893    315.83009    831.72951 
  196060    187.97581   -845.57143    308.73642    896.43016 
  196080    195.51837   -857.92589    321.12452    762.27213 
  196100    205.74086   -874.91392    337.91421     507.1513 
  196120    196.66408   -859.84728    323.00626    673.97333 
  196140    199.25558   -864.15847    327.26261    669.44102 
  196160    205.27456   -874.05901    337.14834    562.33994 
  196180    196.06442   -858.82367    322.02136    767.68396 
  196200    192.16409   -852.44169    315.61536    823.39605 
  196220    197.35588   -861.07147    324.14249    765.78582 
  196240    197.12157   -860.63386    323.75765    719.00439 
  196260    199.33053   -864.19411    327.38571    681.82939 
  196280    197.17476   -860.73123    323.84503    705.22475 
  196300    190.15698   -849.18566    312.31883    886.03732 
  196320    188.91434   -847.09475    310.27789    934.78668 
  196340    196.69279    -859.9575    323.05342    719.01585 
  196360     199.5346   -864.55227    327.72088    623.77312 
  196380    196.89213   -860.25963    323.38083    723.23562 
  196400    197.78074   -861.82565    324.84029    685.92297 
  196420    197.63194   -861.58913    324.59591    693.99299 
  196440    201.35987   -867.68824    330.71876    648.70876 
  196460    193.62948   -854.90634    318.02215    838.13453 
  196480    196.25024   -859.22868    322.32656    772.60465 
  196500    198.78452   -863.43062    326.48892    682.97101 
  196520    190.61992    -850.0074    313.07918    845.33094 
  196540    195.15971   -857.44272    320.53544    763.80018 
  196560    201.46702   -867.77904    330.89473    641.51613 
  196580     199.6961   -864.95736    327.98613    724.02639 
  196600    191.75281   -851.78569    314.93986    862.27164 
  196620    195.93287   -858.67267    321.80531     827.0105 
  196640    197.40751   -861.17234    324.22729    757.21663 
  196660    200.45347   -866.11013    329.23006    676.48788 
  196680    193.46516   -854.69895    317.75228    823.48591 
  196700    206.36105   -875.90302    338.93282    501.62162 
  196720    200.01441   -865.35703    328.50893    647.73648 
  196740    195.86102   -858.61555     321.6873     797.1716 
  196760    201.13102   -867.23975    330.34288    668.01768 
  196780     200.7562   -866.70103    329.72727    736.03761 
  196800    201.00242   -867.07575    330.13167    654.25545 
  196820    199.84889   -865.20982    328.23708    658.81619 
  196840    197.33925   -861.03853    324.11518    703.89405 
  196860    200.47619   -866.16365    329.26738    659.33728 
  196880    198.23013   -862.46944    325.57839    682.95925 
  196900    194.65014   -856.60622    319.69852    831.95507 
  196920    202.66527   -869.72779    332.86277    596.52964 
  196940    200.09124   -865.48394    328.63512    680.89401 
  196960    198.24841   -862.52407    325.60841    702.62727 
  196980    197.27659   -860.96114    324.01227    775.35764 
  197000    198.84573   -863.47495    326.58947    717.99419 
  197020    197.67612    -861.6156    324.66846    737.21257 
  197040    200.63064   -866.39722    329.52104    675.31906 
  197060    198.39553   -862.77215    325.85005    736.20352 
  197080    193.76671   -855.15238    318.24754     801.6923 
  197100    197.35773   -861.07516    324.14554    750.12267 
  197120    201.39228   -867.69034    330.77199    633.74371 
  197140    194.10229    -855.6926    318.79871    766.93737 
  197160    197.78843   -861.73807    324.85292    701.09919 
  197180    196.19116   -859.07735    322.22953    700.50299 
  197200    194.80072   -856.92826    319.94583    778.51486 
  197220    203.87352   -871.81544    334.84723    578.53341 
  197240    201.34997   -867.61038    330.70249    588.85846 
  197260    196.02872   -858.93198    321.96273    773.30346 
  197280    200.84539   -866.83441    329.87376    671.77304 
  197300    201.39739   -867.61994    330.78038    628.40734 
  197320    195.29538   -857.52339    320.75828      769.227 
  197340    200.81819   -866.71671    329.82908    645.71818 
  197360    196.73888   -859.95909    323.12911    707.67573 
  197380    197.72219   -861.65447    324.74414    690.79457 
  197400    200.46364    -866.1613    329.24676    625.37053 
  197420    194.43207   -856.18984    319.34035     790.7828 
  197440    195.90575   -858.79695    321.76076    789.08894 
  197460    198.27596   -862.65356    325.65366    735.54159 
  197480     198.9547   -863.64189    326.76845    701.65982 
  197500    194.44368   -856.29811    319.35943    783.78239 
  197520    197.27863   -860.92763    324.01562    732.69716 
  197540    199.73595    -864.9449    328.05158    698.04678 
  197560     202.4976   -869.57488     332.5874    594.05677 
  197580    200.28285   -865.94695    328.94983    670.31287 
  197600    200.34942   -865.87456    329.05916    665.07653 
  197620    195.05576   -857.23179    320.36472    809.84451 
  197640    204.03877   -872.01145    335.11864    617.29271 
  197660    200.42165   -866.09953    329.17779    635.39919 
  197680    202.79478   -869.95347    333.07549    603.07828 
  197700    194.55564   -856.38783    319.54331    799.37889 
  197720     191.9567   -852.03935    315.27474    831.10031 
  197740    200.14363   -865.65115    328.72117    652.97268 
  197760    192.86656   -853.55114    316.76911    843.06755 
  197780    200.55344   -866.39513    329.39425     664.1426 
  197800    199.70941   -864.87909      328.008     664.1397 
  197820    197.91303   -861.93888    325.05758    681.26371 
  197840    202.98988   -870.31903    333.39593    611.49434 
  197860    199.86156   -865.17121     328.2579    673.69807 
  197880    194.82208   -856.90923    319.98092    739.10763 
  197900    200.68352    -866.5444     329.6079    628.08083 
  197920    199.08422   -863.85648    326.98116    684.77086 
  197940    200.09727   -865.59515    328.64503    699.82772 
  197960    201.81211   -868.35653    331.46152     642.0608 
  197980     197.9952   -862.18117    325.19253     711.9383 
  198000    199.14464   -863.99534     327.0804    595.10414 
  198020    194.44168    -856.1867    319.35614    758.57371 
  198040    199.27438   -864.13076    327.29348    647.34314 
  198060    200.85739     -866.796    329.89346    694.65162 
  198080     198.5629   -863.01717    326.12494    737.74133 
  198100    201.63859   -868.11295    331.17652    682.71622 
  198120    199.26418   -864.25815    327.27674    710.19014 
  198140    196.37386   -859.33395     322.5296    770.52461 
  198160    197.63892   -861.47481    324.60737    693.45646 
  198180    200.74238   -866.59984    329.70457    650.66814 
  198200    199.46632   -864.50307    327.60873    702.77476 
  198220    199.66788   -864.83687    327.93979    682.77334 
  198240    202.82255   -870.00518     333.1211    626.90678 
  198260    203.66331   -871.46122    334.50198     615.9288 
  198280    204.31578   -872.52038    335.57361    549.79335 
  198300    199.20198   -864.12492    327.17458    703.84643 
  198320    194.62811   -856.49963    319.66234    806.25212 
  198340    201.56978   -867.98539    331.06352    659.86527 
  198360     192.4141   -852.90469    316.02598    855.63188 
  198380    196.63299   -859.89896    322.95521    771.16137 
  198400    200.35073   -866.00292    329.06132    654.85652 
  198420    196.46983   -859.54215    322.68723     753.2692 
  198440    196.20033   -859.11589    322.24459    774.19841 
  198460    197.29964   -860.94703    324.05013    748.60281 
  198480    195.62957   -858.14271    321.30715    757.98369 
  198500     196.9221   -860.32366    323.43004    759.11653 
  198520    194.80453   -856.83655     319.9521    798.15674 
  198540    191.53541   -851.45157    314.58281    843.32049 
  198560    197.71146   -861.60248     324.7265    751.96463 
  198580    195.24384   -857.55362    320.67362    787.83979 
  198600    198.07162    -862.2817    325.31804    740.12434 
  198620    201.46695   -867.77376    330.89462     671.9373 
  198640    202.25276   -869.17074    332.18526    635.91256 
  198660    205.39093    -874.2602    337.33948    586.49094 
  198680    198.46127   -862.87434    325.95801    709.12984 
  198700    193.44898   -854.63652    317.72571    836.86598 
  198720    201.94202   -868.59586    331.67489    703.77516 
  198740    195.86209   -858.60801    321.68906     800.4042 
  198760    200.53047    -866.2089    329.35653    701.20688 
  198780    196.43199   -859.51613    322.62507    713.75453 
  198800    198.22075    -862.4368    325.56299    679.43109 
  198820    199.98907   -865.40315    328.46732    651.68596 
  198840    203.42705   -871.09354    334.11394    562.58733 
  198860    196.84929   -860.11696    323.31045    776.36585 
  198880    194.41674   -856.06418    319.31517    784.56587 
  198900    197.58994    -861.3267    324.52692     697.9015 
  198920    187.88661   -845.41987    308.58992    963.57533 
  198940     200.3906   -865.96692     329.1268    620.03786 
  198960    191.62384   -851.56617    314.72804    873.95895 
  198980    194.81212   -856.87817    319.96455    810.44176 
  199000    202.00843   -868.64772    331.78397     620.8121 
  199020    199.10625   -863.82084    327.01735    649.58064 
  199040    205.80651   -875.02513    338.02203    565.71313 
  199060    197.02946    -860.5185    323.60637    810.60735 
  199080    198.44614    -862.8297    325.93316    748.22881 
  199100    191.06785   -850.71609    313.81486    875.96148 
  199120    194.02327   -855.53023    318.66893    772.96776 
  199140     197.3274   -860.94991    324.09572    723.22152 
  199160    194.87434   -856.80711    320.06675    751.12601 
  199180    194.64262   -856.60383    319.68616    814.48271 
  199200    199.69469   -864.85504    327.98381      722.536 
  199220    198.59521   -863.00757    326.17801    738.13078 
  199240    201.47471   -867.77913    330.90737    673.71491 
  199260    202.61442   -869.64362    332.77927    583.72435 
  199280    198.14814   -862.29066    325.44373    680.11513 
  199300    199.80173   -865.10092    328.15962    713.03617 
  199320    201.03917    -867.0157    330.19203    697.43099 
  199340    202.50157   -869.50989    332.59391    636.29133 
  199360    206.10851   -875.44464    338.51805    548.93268 
  199380    195.57977   -858.07028    321.22537    800.65094 
  199400    197.70224   -861.57928    324.71137    748.42795 
  199420    200.28804   -865.79611    328.95836    640.78398 
  199440    196.57017   -859.81514    322.85202    748.28609 
  199460    202.11205    -868.9038    331.95415    640.27071 
  199480    199.27834   -864.21325    327.29999    703.49558 
  199500    201.76268    -868.2877    331.38034    687.36851 
  199520    201.69678   -868.21957     331.2721    727.07528 
  199540    192.59799   -853.21732    316.32801    887.69839 
  199560      196.087   -858.93945    322.05845    760.34321 
  199580    193.06647   -854.03777    317.09745    864.98484 
  199600     191.7926   -851.85159    315.00521    834.81771 
  199620     194.7402    -856.8064    319.84644    804.31344 
  199640     193.2153   -854.17503    317.34191    816.27742 
  199660    201.80325   -868.36124    331.44698    622.05556 
  199680    196.97348   -860.44315    323.51443    737.79678 
  199700    203.22187   -870.67718    333.77695    556.14283 
  199720    201.78854   -868.37796    331.42282     640.4039 
  199740    199.82709   -865.14659    328.20128    708.89155 
  199760    196.82544    -860.1663    323.27129    736.29226 
  199780    197.92813   -861.92701    325.08238    694.07977 
  199800     200.0686   -865.51132    328.59794    658.10552 
  199820    197.40708   -861.12413    324.22659    671.34949 
  199840    193.23055   -854.18144    317.36694    794.96482 
  199860    199.40056   -864.41808    327.50074    641.42492 
  199880    194.95486   -857.09172    320.19899      758.158 
  199900     200.9128   -866.86446    329.98448    621.11375 
  199920    202.80648   -870.00242    333.09471    574.04521 
  199940    204.70148   -873.09523     336.2071    551.07303 
  199960     196.7356   -860.03496    323.12373    729.17697 
  199980    194.02687   -855.58292    318.67484    753.20291 
  200000    200.01809   -865.37678    328.51498    649.81151 
  200020    201.91041    -868.4536    331.62297    561.93504 
  200040    198.79746   -863.48932    326.51019    657.15802 
  200060    197.60661   -861.49212    324.55431    711.34655 
  200080    203.87523    -871.6855    334.85005    518.95909 
  200100    202.29633   -869.13629    332.25681    613.62085 
  200120    203.75839   -871.63096    334.65814    564.70913 
  200140    201.68365   -868.14608    331.25054    613.55927 
  200160    195.38964   -857.80546    320.91309    764.13922 
  200180    194.28865   -856.02767    319.10479    791.04624 
  200200    194.16368   -855.71571    318.89954    828.82748 
  200220     197.3852   -861.06452    324.19065    759.78868 
  200240     202.0178   -868.72701    331.79935    631.34398 
  200260    196.09225   -859.05266    322.06707     815.6724 
  200280     196.6833   -859.97494    323.03783    785.81974 
  200300    195.23119   -857.56758    320.65285    750.96327 
  200320    202.30393   -869.24197    332.26931    635.00409 
  200340    195.73441   -858.43355    321.47935    808.97273 
  200360    196.26548   -859.24453    322.35159    830.39477 
  200380    199.20613   -864.02226     327.1814    720.58488 
  200400    201.00793   -866.97163    330.14072    656.57513 
  200420    197.36707   -861.02957    324.16088    716.99629 
  200440    204.79244    -873.2697     336.3565    577.82133 
  200460    206.99875   -876.90017     339.9802    465.37289 
  200480     192.2702   -852.58542    315.78964    828.68205 
  200500    199.88607   -865.15197    328.29814    643.49384 
  200520    199.76878   -864.96348    328.10551    655.96933 
  200540    194.48733   -856.33434    319.43111    764.88898 
  200560    199.94705   -865.29714     328.3983    717.94308 
  200580     194.4216   -856.21899    319.32315    768.03181 
  200600    192.13882   -852.43877    315.57386     894.3475 
  200620    197.91511    -861.9421    325.06099    698.99495 
  200640    197.66117   -861.54928    324.64391    800.35623 
  200660    198.81019   -863.44022     326.5311    682.28592 
  200680    195.57796   -858.03302    321.22239    761.55764 
  200700    197.07887   -860.61104    323.68753    715.59443 
  200720     195.1526   -857.47572    320.52377    800.47231 
  200740    201.76484   -868.29117    331.38388    680.59965 
  200760    195.74719   -858.36227    321.50034    782.25811 
  200780    199.98678   -865.40463    328.46356    733.49669 
  200800    202.09863   -868.93017    331.93211    629.89018 
  200820    195.46818    -857.9016    321.04209    757.53403 
  200840    206.47916   -876.05264    339.12681    550.84225 
  200860    201.51901   -867.85296    330.98012    617.35918 
  200880    204.74741   -873.18916    336.28254    505.70969 
  200900    193.66362   -854.97147    318.07823    780.89249 
  200920    197.90858   -861.91753    325.05027    719.41076 
  200940    195.98834   -858.68166    321.89641    727.40235 
  200960    199.42503   -864.40067    327.54091    695.05372 
  200980    205.56909   -874.52331    337.63209    515.03536 
  201000    196.85638   -860.17252    323.32211    711.46932 
  201020    196.22739   -859.15177    322.28903    727.49602 
  201040    188.94884    -847.1533    310.33456    934.32934 
  201060    203.75028    -871.5785    334.64482    581.79663 
  201080    194.25979   -855.99559    319.05739    848.98899 
  201100     199.7466   -864.97392    328.06908    685.80141 
  201120    199.04098    -863.8564    326.91014    670.12326 
  201140    191.72043   -851.76536    314.88669     878.1372 
  201160    201.71388   -868.22501    331.30019    664.85155 
  201180    193.99721   -855.53674    318.62613    803.44061 
  201200    192.37389   -852.83096    315.95994     814.2768 
  201220    200.04268   -865.52235    328.55537     628.5591 
  201240    199.40892   -864.40435    327.51446    747.86605 
  201260    200.07769   -865.49584    328.61287    658.22298 
  201280    202.78767   -870.00422    333.06381    636.30139 
  201300    199.02325   -863.78876    326.88103    717.14091 
  201320    200.39965   -865.95467    329.14166    691.79424 
  201340    195.68054   -858.36873    321.39088    758.12486 
  201360    192.14158   -852.47339     315.5784    815.60486 
  201380    196.62814   -859.84356    322.94723    750.76448 
  201400    198.08861   -862.30477    325.34595    701.52812 
  201420    203.04788   -870.47439    333.49119    564.66462 
  201440    198.24098   -862.54359    325.59621    711.20953 
  201460    197.78375   -861.79058    324.84524    753.87636 
  201480    191.68681   -851.70546    314.83146    805.85389 
  201500    196.67164   -859.90883    323.01868     773.0563 
  201520    192.31275   -852.72436    315.85952    893.04013 
  201540    199.49102   -864.53866    327.64931     700.9236 
  201560    205.98987   -875.29342    338.32319    552.30368 
  201580    197.54833    -861.3506    324.45858    761.97243 
  201600    197.04632   -860.51627    323.63406     751.4768 
  201620    194.75604   -856.75437    319.87245    766.89889 
  201640     196.2837   -859.30815    322.38152    793.32103 
  201660     193.5619    -854.7434    317.91117    837.24175 
  201680    190.16884   -849.32197     312.3383    887.72306 
  201700    198.61229   -863.11698    326.20606    714.06192 
  201720    189.97775   -848.84405    312.02446    872.05438 
  201740    196.04024   -858.84361    321.98166    713.15372 
  201760    197.16631   -860.67457    323.83114    647.21803 
  201780    191.94074   -852.05335    315.24853    804.40798 
  201800    200.96725   -866.92074     330.0739    677.51345 
  201820    200.10496   -865.54531    328.65765    678.99738 
  201840    201.09629   -867.15505    330.28585     648.8307 
  201860    195.02451   -857.22001    320.31339     764.9752 
  201880    195.43744   -857.80487    320.99159    780.88865 
  201900    200.30995   -865.89879    328.99433     686.4023 
  201920    207.30665   -877.34771    340.48591    439.53918 
  201940    192.45588   -852.94013    316.09461    806.34153 
  201960    200.76847    -866.6863    329.74743    668.54555 
  201980    197.25009   -860.94346    323.96874    738.21114 
  202000    203.52094   -871.27346    334.26814    597.65795 
Loop time of 874.966 on 4 procs for 200000 steps with 828 atoms

Pair  time (%) = 327.808 (37.4652)
Bond  time (%) = 4.78573 (0.546962)
Neigh time (%) = 111.674 (12.7632)
Comm  time (%) = 150.585 (17.2104)
Outpt time (%) = 15.1177 (1.7278)
Other time (%) = 264.996 (30.2864)

Nlocal:    207 ave 209 max 205 min
Histogram: 1 0 1 0 0 0 0 1 0 1
Nghost:    3519 ave 3533 max 3505 min
Histogram: 1 0 1 0 0 0 0 1 0 1
Neighs:    44546 ave 45144 max 43697 min
Histogram: 1 0 0 0 1 0 0 0 1 1

Total # of neighbors = 178184
Ave neighs/atom = 215.198
Ave special neighs/atom = 2
Neighbor list builds = 22213
Dangerous builds = 0

